    8
Frame =  1  cycle =  1  energy =    -4.128801269      v2_tot =    0.6390397589      v3_tot =     4.767841028    
Na         -0.403341         -1.605034         -0.891265
K          -0.119307          0.671086         -4.117191
K          -3.874211          0.183787         -1.540297
K           3.161045          0.170037         -1.010661
K          -0.490131          2.700484         -0.203526
K           1.798286         -2.934524          2.065464
K          -2.050241         -0.506280          2.565680
K           1.977902          1.320444          3.131797
